
 Working directory              : /tmp/trushin/molpro.LGjDJ19XCQ/
 Global scratch directory       : /tmp/trushin/molpro.LGjDJ19XCQ/
 Wavefunction directory         : /home/trushin/wfu/
 Main file repository           : /tmp/trushin/molpro.LGjDJ19XCQ/

 id        : chemieegortrushi

 Nodes         nprocs
 trushin-laptop    1
 GA implementation: MPI file
 GA implementation (serial work in mppx): MPI file

 Using customized tuning parameters: mindgm=1; mindgv=20; mindgc=4; mindgr=1; noblas=0; minvec=7
 default implementation of scratch files=df  


 Variables initialized (1026), CPU time= 0.00 sec
 memory,2000,m
 gthresh,twoint=1d-20,energy=1d-10,orbital=1d-8
 gdirect
 
 basis={
 default,aug-cc-pwCVQZ
 set,ri; default,aug-cc-pwCVQZ/mp2fit
 }
 
 symmetry,nosym
 
 angstrom
 geometry={
 2
 C 0.000000 0.000000 -0.646514
 O 0.000000 0.000000 0.484886
 }
 
 df-ks,pbe0,df_basis=aug-cc-pwCV5Z/mp2fit,maxit=200
 {cfit,basis_coul=aug-cc-pwCV5Z/mp2fit,basis_exch=aug-cc-pwCV5Z/mp2fit}
 
 acfd;rirpa,sigma_param=PBE0_S2
 Commands initialized (841), CPU time= 0.00 sec, 690 directives.
 Default parameters read. Elapsed time= 0.05 sec

 Checking input...
 Passed
1


                                         ***  PROGRAM SYSTEM MOLPRO  ***
                                       Copyright, TTI GmbH Stuttgart, 2015
                                    Version 2023.1 linked Mon Mar 27 21:53:43 2023


 **********************************************************************************************************************************
 LABEL *                                                                                                                                                                 
  (16 PROC) 64 bit serial version                                                        DATE: 29-Mar-23          TIME: 10:02:57  
 **********************************************************************************************************************************

 SHA1:             1c50fd8b8dceb3c17c33d735f2175cf0fe672e61
 **********************************************************************************************************************************

 Memory per process:      2000 MW
 Total memory per node:   2000 MW

 GA preallocation disabled
 GA check disabled

 Variable memory set to 2000.0 MW


 THRESHOLDS:

 ZERO    =  1.00D-12  ONEINT  =  1.00D-12  TWOINT  =  1.00D-20  PREFAC  =  1.00D-14  XXXXXX  =  1.00D-09  EORDER  =  1.00D-04
 ENERGY  =  1.00D-10  ETEST   =  0.00D+00  EDENS   =  0.00D+00  THRDEDEF=  1.00D-06  GRADIENT=  1.00D-05  STEP    =  1.00D-03
 ORBITAL =  1.00D-08  CIVEC   =  1.00D-05  COEFF   =  1.00D-04  PRINTCI =  5.00D-02  PUNCHCI =  9.90D+01  OPTGRAD =  3.00D-04
 OPTENERG=  1.00D-06  OPTSTEP =  3.00D-04  THRGRAD =  1.00D-10  COMPRESS=  1.00D-11  VARMIN  =  1.00D-07  VARMAX  =  1.00D-03
 THRDOUB =  0.00D+00  THRDIV  =  1.00D-05  THRRED  =  1.00D-07  THRPSP  =  1.00D+00  THRDC   =  1.00D-10  THRCS   =  1.00D-10
 THRNRM  =  1.00D-08  THREQ   =  0.00D+00  THRDE   =  1.00D+00  THRREF  =  1.00D-05  SPARFAC =  1.00D+00  THRDLP  =  1.00D-07
 THRDIA  =  1.00D-10  THRDLS  =  1.00D-07  THRGPS  =  0.00D+00  THRKEX  =  0.00D+00  THRDIS  =  2.00D-01  THRVAR  =  1.00D-10
 THRLOC  =  1.00D-06  THRGAP  =  1.00D-06  THRLOCT = -1.00D+00  THRGAPT = -1.00D+00  THRORB  =  1.00D-06  THRMLTP =  0.00D+00
 THRCPQCI=  1.00D-10  KEXTA   =  0.00D+00  THRCOARS=  0.00D+00  SYMTOL  =  1.00D-06  GRADTOL =  1.00D-06  THROVL  =  1.00D-08
 THRORTH =  1.00D-08  THRDLOVL= -1.00D+00  GRID    =  1.00D-06  GRIDMAX =  1.00D-03  DTMAX   =  0.00D+00  THROCCDE=  1.00D-01
 THROCCDE=  1.00D-01  THRPRINT=  2.50D-01

 SETTING BASIS          =    AUG-CC-PWCVQZ
 ZSYMEL=NOSYM
 ZUNIT=ANG


 Geometry recognized as XYZ



 Recomputing integrals since basis changed


 Using spherical harmonics

 Library entry C      S aug-cc-pwCVQZ        selected for orbital group  1
 Library entry C      P aug-cc-pwCVQZ        selected for orbital group  1
 Library entry C      D aug-cc-pwCVQZ        selected for orbital group  1
 Library entry C      F aug-cc-pwCVQZ        selected for orbital group  1
 Library entry C      G aug-cc-pwCVQZ        selected for orbital group  1
 Library entry O      S aug-cc-pwCVQZ        selected for orbital group  2
 Library entry O      P aug-cc-pwCVQZ        selected for orbital group  2
 Library entry O      D aug-cc-pwCVQZ        selected for orbital group  2
 Library entry O      F aug-cc-pwCVQZ        selected for orbital group  2
 Library entry O      G aug-cc-pwCVQZ        selected for orbital group  2


 PROGRAM * SEWARD (Integral evaluation for generally contracted gaussian basis sets)     Author: Roland Lindh, 1990

 Geometry written to block  1 of record 700


 Point group  C1  



 ATOMIC COORDINATES

 NR  ATOM    CHARGE       X              Y              Z

   1  C       6.00    0.000000000    0.000000000   -1.221734396
   2  O       8.00    0.000000000    0.000000000    0.916301742

 Bond lengths in Bohr (Angstrom)

 1-2  2.138036137
     ( 1.131400000)

 NUCLEAR CHARGE:                   14
 NUMBER OF PRIMITIVE AOS:         304
 NUMBER OF SYMMETRY AOS:          244
 NUMBER OF CONTRACTIONS:          218   (  218A   )
 NUMBER OF INNER CORE ORBITALS:     0   (    0A   )
 NUMBER OF OUTER CORE ORBITALS:     2   (    2A   )
 NUMBER OF VALENCE ORBITALS:        8   (    8A   )


 NUCLEAR REPULSION ENERGY   22.45050921


 Basis set:    RI
 Basis size:   444
 Sphericals:   T

 **********************************************************************************************************************************

 EXTRA SYMMETRY OF AOS IN SYMMETRY 1:   1 1 1 1 1 1 1 1 1 2   3 1 2 3 1 2 3 1 2 3   1 2 3 1 2 3 1 2 3 1   2 3 1 1 4 2 5 3 1 4
                                        2 5 3 1 4 2 5 3 1 4   2 5 3 1 4 2 5 3 1 4   2 5 3 2 3 1 6 4 7 5   2 3 1 6 4 7 5 2 3 1
                                        6 4 7 5 2 3 1 6 4 7   5 1 4 2 8 3 5 9 6 7   1 4 2 8 3 5 9 6 7 1   1 1 1 1 1 1 1 1 2 3
                                        1 2 3 1 2 3 1 2 3 1   2 3 1 2 3 1 2 3 1 2   3 1 1 4 2 5 3 1 4 2   5 3 1 4 2 5 3 1 4 2
                                        5 3 1 4 2 5 3 1 4 2   5 3 2 3 1 6 4 7 5 2   3 1 6 4 7 5 2 3 1 6   4 7 5 2 3 1 6 4 7 5
                                        1 4 2 8 3 5 9 6 7 1   4 2 8 3 5 9 6 7

 Eigenvalues of metric

         1 0.247E-04 0.291E-04 0.918E-04 0.392E-03 0.504E-03 0.504E-03 0.560E-03 0.833E-03


 OPERATOR DM      FOR CENTER  0  COORDINATES:    0.000000    0.000000    0.000000


 **********************************************************************************************************************************
 DATASETS  * FILE   NREC   LENGTH (MB)   RECORD NAMES
              1      18       30.28       500      610      700      900      950      970     1000      129      960     1100   
                                          VAR    BASINP    GEOM    SYMINP    ZMAT    AOBASIS   BASIS     P2S    ABASIS      S 
                                         1400     1410     1200     1210     1080     1600     1650     1700   
                                           T        V       H0       H01     AOSYM     SMH    MOLCAS    OPER   

 PROGRAMS   *        TOTAL       INT
 CPU TIMES  *         0.65      0.57
 REAL TIME  *         1.00 SEC
 DISK USED  *        30.62 MB
 **********************************************************************************************************************************


 Program * Restricted Kohn-Sham

 Density functional group PBE0=PBEX+PBEC
 Functional: PBEX(Automatically generated (new) PBEX)                          Gradient terms: 1
 Functional: PBEC(Automatically generated (new) PBEC)                          Gradient terms: 1

 Exact exchange will be calculated, factor:  0.2500
 Functional: PBEX                   Factor:  0.7500
 Functional: PBEC                   Factor:  1.0000


 Setting radial_scaling=1d0
 Radial grid threshold:                     5.0D-07
 Global grid threshold:                     1.0D-06
 Angular grid threshold:                    1.0D-07
 Fac_Neighbour:                                 4.0
 Size adjustment in partitioning scheme:   TREUTLER
 Skip grid points with weights lower than:  1.0D-20
 Grid orientation:                                T
 Pruning method:                                  4
 Pruning function:                                0

 Generated new metagrid on record  1800.2 with target accuracy 1.0D-06 and 10372 points in CPU time    0.4
 Computed new grid on record 1800.1 in CPU time    0.4
 Grid points discarded due to weight cutoff:      28

 DFT orbital screening threshold (tolorb):   1.0D-11

 Basis set AWCV5Z/MP2FIT generated.      Number of basis functions:   656 
 Coulomb and exchange fitting
 Thresholds for fitting:       THRAO_COUL= 1.0D-17    THRAO_EXCH= 1.0D-15    THRMO= 1.0D-14    THRPROD= 1.0D-14    THRASM= 1.0D-14
                               THR2HLF=    1.0D-14

 Basis set AWCV5Z-MP2FIT loaded. Number of basis functions: 656

 Orbital guess generated from atomic densities. Full valence occupancy:   10
 Using density fitting in orbital guess


 Initial occupancy:   7

 NELEC=   14   SYM=1   MS2= 0   THRE=1.0D-11   THRD=1.0D-08   THRG=1.0D-08  HFMA2=F  DIIS_START=2   DIIS_MAX=10   DIIS_INCORE=F

 Level shifts:    0.00 (CLOSED)    0.00 (OPEN)    0.30 (GAP_MIN)

 ITER           ETOT              DE          GRAD        DDIFF     DIIS  NEXP   TIME(IT)  TIME(TOT)  DIAG
   1     -113.22238299    -113.22238299     0.00D+00     0.35D-01     0     0       2.86      6.56    start
   2     -113.18032714       0.04205585     0.39D-02     0.44D-02     1     0       2.84      9.40    diag
   3     -113.23533200      -0.05500486     0.74D-02     0.32D-02     2     0       2.67     12.07    diag
   4     -113.23620364      -0.00087164     0.83D-03     0.47D-03     3     0       2.80     14.87    diag
   5     -113.23621647      -0.00001283     0.10D-03     0.58D-04     4     0       2.91     17.78    diag
   6     -113.23621668      -0.00000021     0.14D-04     0.55D-05     5     0       2.78     20.56    diag
   7     -113.23621668      -0.00000000     0.92D-06     0.61D-06     6     0       3.01     23.57    diag
   8     -113.23621668      -0.00000000     0.12D-06     0.66D-07     7     0       3.07     26.64    fixocc
   9     -113.23621668      -0.00000000     0.82D-08     0.77D-08     8     0       2.86     29.50    diag
  10     -113.23621668       0.00000000     0.87D-09     0.12D-08     0     0       3.17     32.67    diag/orth

 Final occupancy:   7

 !RKS STATE 1.1 Energy               -113.236216682045
  RKS One-electron energy            -198.233586988099
  RKS Two-electron energy              72.980919863514
  RKS Kinetic energy                  112.809412481392
  RKS Nuclear energy                   22.450509212784
  RKS Virial quotient                  -1.003783409480
 Density functional                   -10.43405877     PBEX=-13.31295808 PBEC= -0.44934021

 !RKS STATE 1.1 Dipole moment           0.00000000    -0.00000000     0.03526083
 Dipole moment /Debye                   0.00000000    -0.00000000     0.08962409

 Orbital energies:

           1.1          2.1          3.1          4.1          5.1          6.1          7.1          8.1          9.1
    -19.315431   -10.345828    -1.195969    -0.599739    -0.494930    -0.494930    -0.395334    -0.029836    -0.029836


 HOMO      7.1    -0.395334 =     -10.7576eV
 LUMO      8.1    -0.029836 =      -0.8119eV
 LUMO-HOMO         0.365497 =       9.9457eV

 Orbitals saved in record  2100.2


 **********************************************************************************************************************************
 DATASETS  * FILE   NREC   LENGTH (MB)   RECORD NAMES
              1      19       30.60       500      610      700      900      950      970     1000      129      960     1100   
                                          VAR    BASINP    GEOM    SYMINP    ZMAT    AOBASIS   BASIS     P2S    ABASIS      S 
                                         1400     1410     1200     1210     1080     1600     1650     1700     1800   
                                           T        V       H0       H01     AOSYM     SMH    MOLCAS    OPER     GRID   

              2       5        1.13       700     1000      520     1800     2100   
                                         GEOM     BASIS   MCVARS    GRID      RKS  

 PROGRAMS   *        TOTAL     DF-KS       INT
 CPU TIMES  *        33.75     33.10      0.57
 REAL TIME  *         7.51 SEC
 DISK USED  *        42.74 MB
 **********************************************************************************************************************************

 Basis set:    RI
 Basis size:   444
 Sphericals:   T
 
 PROGRAM * RIRPA  (restricted resolution of identity random-phase approximation)

 Authors:
 A. Hesselmann, P. Bleiziffer, D. Schmidtel, J. Erhard, A. Thierbach, E. Trushin

 Read Orbital Records from 2100.2
 Threshold for eigenvalue difference in construction of X0:     1.000E-06
 Threshold for processing RI basis thr_overlap_ri:     1.000E-99
 Threshold for processing RI basis thr_fai_ri:     1.000E-14
 Use density fitting for evaluation of reference xc energy: T
 Gauss-Legendre integration for frequency with rational function:
 Number of logarithmic integration intervals:    1
 Number of quadrature points per interval:  50
 Scaling factor:  2.500E+00
 Sigma-functional will be used
 Sigma-functional parametrization: PBE0_S2                         

 Molecular orbitals read from record     2100.2  Type=RKS/CANONICAL  
 Orbital energies read from record       2100.2  Type=RKS/CANONICAL  
 Density matrix read from record         2100.2  Type=RKS/CHARGE  

  Reference Energy                   -112.777440046350
  RPA Correlation Energy               -0.748153093399
  RPA Total Energy                   -113.525593139749
  SIGMA Correlation Energy             -0.594310478185
 !SIGMA Total Energy                 -113.371750524535


 **********************************************************************************************************************************
 DATASETS  * FILE   NREC   LENGTH (MB)   RECORD NAMES
              1      19       30.60       500      610      700      900      950      970     1000      129      960     1100   
                                          VAR    BASINP    GEOM    SYMINP    ZMAT    AOBASIS   BASIS     P2S    ABASIS      S 
                                         1400     1410     1200     1210     1080     1600     1650     1700     1800   
                                           T        V       H0       H01     AOSYM     SMH    MOLCAS    OPER     GRID   

              2       5        1.31       700     1000      520     1800     2100   
                                         GEOM     BASIS   MCVARS    GRID      RKS  

              4       1        3.31      4000   
                                         JMAT   

 PROGRAMS   *        TOTAL      ACFD     DF-KS       INT
 CPU TIMES  *        64.77     30.99     33.10      0.57
 REAL TIME  *        13.85 SEC
 DISK USED  *        43.00 MB
 **********************************************************************************************************************************

 ACFD/aug-cc-pWCVQZ energy=   -113.371750524535

            ACFD           DF-KS
   -113.37175052   -113.23621668
 **********************************************************************************************************************************
 Molpro calculation terminated
